version 2
run Red8012154-1-20121204-19:53:59-29877
attr configname Red8012154
attr datetime 20121204-19:53:59
attr experiment Red8012154
attr inifile omnetpp.ini
attr iterationvars ""
attr iterationvars2 $repetition=1
attr measurement ""
attr network ieee802154Narrow
attr processid 29877
attr repetition 1
attr replication #1
attr resultdir results
attr runnumber 1
attr seedset 1

vector 290  ieee802154Narrow.anchor[0].appl  "Number of packets from this anchor"  TV
vector 296  ieee802154Narrow.anchor[1].appl  "Number of packets from this anchor"  TV
vector 302  ieee802154Narrow.anchor[2].appl  "Number of packets from this anchor"  TV
vector 308  ieee802154Narrow.anchor[3].appl  "Number of packets from this anchor"  TV
vector 314  ieee802154Narrow.anchor[4].appl  "Number of packets from this anchor"  TV
vector 320  ieee802154Narrow.anchor[5].appl  "Number of packets from this anchor"  TV
vector 326  ieee802154Narrow.anchor[6].appl  "Number of packets from this anchor"  TV
vector 332  ieee802154Narrow.anchor[7].appl  "Number of packets from this anchor"  TV
vector 338  ieee802154Narrow.anchor[8].appl  "Number of packets from this anchor"  TV
vector 344  ieee802154Narrow.anchor[9].appl  "Number of packets from this anchor"  TV
vector 350  ieee802154Narrow.anchor[10].appl  "Number of packets from this anchor"  TV
vector 356  ieee802154Narrow.anchor[11].appl  "Number of packets from this anchor"  TV
vector 362  ieee802154Narrow.anchor[12].appl  "Number of packets from this anchor"  TV
vector 368  ieee802154Narrow.anchor[13].appl  "Number of packets from this anchor"  TV
vector 374  ieee802154Narrow.anchor[14].appl  "Number of packets from this anchor"  TV
vector 380  ieee802154Narrow.anchor[15].appl  "Number of packets from this anchor"  TV
vector 386  ieee802154Narrow.anchor[16].appl  "Number of packets from this anchor"  TV
vector 392  ieee802154Narrow.anchor[17].appl  "Number of packets from this anchor"  TV
vector 398  ieee802154Narrow.anchor[18].appl  "Number of packets from this anchor"  TV
vector 404  ieee802154Narrow.anchor[19].appl  "Number of packets from this anchor"  TV
vector 410  ieee802154Narrow.anchor[20].appl  "Number of packets from this anchor"  TV
vector 416  ieee802154Narrow.anchor[21].appl  "Number of packets from this anchor"  TV
vector 422  ieee802154Narrow.anchor[22].appl  "Number of packets from this anchor"  TV
vector 428  ieee802154Narrow.anchor[23].appl  "Number of packets from this anchor"  TV
vector 434  ieee802154Narrow.anchor[24].appl  "Number of packets from this anchor"  TV
vector 287  ieee802154Narrow.anchor[0].appl  "Dropped Packets in AN - No ACK received"  TV
vector 288  ieee802154Narrow.anchor[0].appl  "Dropped Packets in AN - Max MAC BackOff tries"  TV
vector 289  ieee802154Narrow.anchor[0].appl  "Number of AN Reports with ACK"  TV
vector 291  ieee802154Narrow.anchor[0].appl  "Number of packets sent from mobile node 0"  TV
vector 292  ieee802154Narrow.anchor[0].appl  "Effectiveness in each anchor"  TV
vector 293  ieee802154Narrow.anchor[1].appl  "Dropped Packets in AN - No ACK received"  TV
vector 294  ieee802154Narrow.anchor[1].appl  "Dropped Packets in AN - Max MAC BackOff tries"  TV
vector 295  ieee802154Narrow.anchor[1].appl  "Number of AN Reports with ACK"  TV
vector 297  ieee802154Narrow.anchor[1].appl  "Number of packets sent from mobile node 0"  TV
vector 298  ieee802154Narrow.anchor[1].appl  "Effectiveness in each anchor"  TV
vector 299  ieee802154Narrow.anchor[2].appl  "Dropped Packets in AN - No ACK received"  TV
vector 300  ieee802154Narrow.anchor[2].appl  "Dropped Packets in AN - Max MAC BackOff tries"  TV
vector 301  ieee802154Narrow.anchor[2].appl  "Number of AN Reports with ACK"  TV
vector 303  ieee802154Narrow.anchor[2].appl  "Number of packets sent from mobile node 0"  TV
vector 304  ieee802154Narrow.anchor[2].appl  "Effectiveness in each anchor"  TV
vector 305  ieee802154Narrow.anchor[3].appl  "Dropped Packets in AN - No ACK received"  TV
vector 306  ieee802154Narrow.anchor[3].appl  "Dropped Packets in AN - Max MAC BackOff tries"  TV
vector 307  ieee802154Narrow.anchor[3].appl  "Number of AN Reports with ACK"  TV
vector 309  ieee802154Narrow.anchor[3].appl  "Number of packets sent from mobile node 0"  TV
vector 310  ieee802154Narrow.anchor[3].appl  "Effectiveness in each anchor"  TV
vector 311  ieee802154Narrow.anchor[4].appl  "Dropped Packets in AN - No ACK received"  TV
vector 312  ieee802154Narrow.anchor[4].appl  "Dropped Packets in AN - Max MAC BackOff tries"  TV
vector 313  ieee802154Narrow.anchor[4].appl  "Number of AN Reports with ACK"  TV
vector 315  ieee802154Narrow.anchor[4].appl  "Number of packets sent from mobile node 0"  TV
vector 316  ieee802154Narrow.anchor[4].appl  "Effectiveness in each anchor"  TV
vector 317  ieee802154Narrow.anchor[5].appl  "Dropped Packets in AN - No ACK received"  TV
vector 318  ieee802154Narrow.anchor[5].appl  "Dropped Packets in AN - Max MAC BackOff tries"  TV
vector 319  ieee802154Narrow.anchor[5].appl  "Number of AN Reports with ACK"  TV
vector 321  ieee802154Narrow.anchor[5].appl  "Number of packets sent from mobile node 0"  TV
vector 322  ieee802154Narrow.anchor[5].appl  "Effectiveness in each anchor"  TV
vector 323  ieee802154Narrow.anchor[6].appl  "Dropped Packets in AN - No ACK received"  TV
vector 324  ieee802154Narrow.anchor[6].appl  "Dropped Packets in AN - Max MAC BackOff tries"  TV
vector 325  ieee802154Narrow.anchor[6].appl  "Number of AN Reports with ACK"  TV
vector 327  ieee802154Narrow.anchor[6].appl  "Number of packets sent from mobile node 0"  TV
vector 328  ieee802154Narrow.anchor[6].appl  "Effectiveness in each anchor"  TV
vector 329  ieee802154Narrow.anchor[7].appl  "Dropped Packets in AN - No ACK received"  TV
vector 330  ieee802154Narrow.anchor[7].appl  "Dropped Packets in AN - Max MAC BackOff tries"  TV
vector 331  ieee802154Narrow.anchor[7].appl  "Number of AN Reports with ACK"  TV
vector 333  ieee802154Narrow.anchor[7].appl  "Number of packets sent from mobile node 0"  TV
vector 334  ieee802154Narrow.anchor[7].appl  "Effectiveness in each anchor"  TV
vector 335  ieee802154Narrow.anchor[8].appl  "Dropped Packets in AN - No ACK received"  TV
vector 336  ieee802154Narrow.anchor[8].appl  "Dropped Packets in AN - Max MAC BackOff tries"  TV
vector 337  ieee802154Narrow.anchor[8].appl  "Number of AN Reports with ACK"  TV
vector 339  ieee802154Narrow.anchor[8].appl  "Number of packets sent from mobile node 0"  TV
vector 340  ieee802154Narrow.anchor[8].appl  "Effectiveness in each anchor"  TV
vector 341  ieee802154Narrow.anchor[9].appl  "Dropped Packets in AN - No ACK received"  TV
vector 342  ieee802154Narrow.anchor[9].appl  "Dropped Packets in AN - Max MAC BackOff tries"  TV
vector 343  ieee802154Narrow.anchor[9].appl  "Number of AN Reports with ACK"  TV
vector 345  ieee802154Narrow.anchor[9].appl  "Number of packets sent from mobile node 0"  TV
vector 346  ieee802154Narrow.anchor[9].appl  "Effectiveness in each anchor"  TV
vector 347  ieee802154Narrow.anchor[10].appl  "Dropped Packets in AN - No ACK received"  TV
vector 348  ieee802154Narrow.anchor[10].appl  "Dropped Packets in AN - Max MAC BackOff tries"  TV
vector 349  ieee802154Narrow.anchor[10].appl  "Number of AN Reports with ACK"  TV
vector 351  ieee802154Narrow.anchor[10].appl  "Number of packets sent from mobile node 0"  TV
vector 352  ieee802154Narrow.anchor[10].appl  "Effectiveness in each anchor"  TV
vector 353  ieee802154Narrow.anchor[11].appl  "Dropped Packets in AN - No ACK received"  TV
vector 354  ieee802154Narrow.anchor[11].appl  "Dropped Packets in AN - Max MAC BackOff tries"  TV
vector 355  ieee802154Narrow.anchor[11].appl  "Number of AN Reports with ACK"  TV
vector 357  ieee802154Narrow.anchor[11].appl  "Number of packets sent from mobile node 0"  TV
vector 358  ieee802154Narrow.anchor[11].appl  "Effectiveness in each anchor"  TV
vector 359  ieee802154Narrow.anchor[12].appl  "Dropped Packets in AN - No ACK received"  TV
vector 360  ieee802154Narrow.anchor[12].appl  "Dropped Packets in AN - Max MAC BackOff tries"  TV
vector 361  ieee802154Narrow.anchor[12].appl  "Number of AN Reports with ACK"  TV
vector 363  ieee802154Narrow.anchor[12].appl  "Number of packets sent from mobile node 0"  TV
vector 364  ieee802154Narrow.anchor[12].appl  "Effectiveness in each anchor"  TV
vector 365  ieee802154Narrow.anchor[13].appl  "Dropped Packets in AN - No ACK received"  TV
vector 366  ieee802154Narrow.anchor[13].appl  "Dropped Packets in AN - Max MAC BackOff tries"  TV
vector 367  ieee802154Narrow.anchor[13].appl  "Number of AN Reports with ACK"  TV
vector 369  ieee802154Narrow.anchor[13].appl  "Number of packets sent from mobile node 0"  TV
vector 370  ieee802154Narrow.anchor[13].appl  "Effectiveness in each anchor"  TV
vector 371  ieee802154Narrow.anchor[14].appl  "Dropped Packets in AN - No ACK received"  TV
vector 372  ieee802154Narrow.anchor[14].appl  "Dropped Packets in AN - Max MAC BackOff tries"  TV
vector 373  ieee802154Narrow.anchor[14].appl  "Number of AN Reports with ACK"  TV
vector 375  ieee802154Narrow.anchor[14].appl  "Number of packets sent from mobile node 0"  TV
vector 376  ieee802154Narrow.anchor[14].appl  "Effectiveness in each anchor"  TV
vector 377  ieee802154Narrow.anchor[15].appl  "Dropped Packets in AN - No ACK received"  TV
vector 378  ieee802154Narrow.anchor[15].appl  "Dropped Packets in AN - Max MAC BackOff tries"  TV
vector 379  ieee802154Narrow.anchor[15].appl  "Number of AN Reports with ACK"  TV
vector 381  ieee802154Narrow.anchor[15].appl  "Number of packets sent from mobile node 0"  TV
vector 382  ieee802154Narrow.anchor[15].appl  "Effectiveness in each anchor"  TV
vector 383  ieee802154Narrow.anchor[16].appl  "Dropped Packets in AN - No ACK received"  TV
vector 384  ieee802154Narrow.anchor[16].appl  "Dropped Packets in AN - Max MAC BackOff tries"  TV
vector 385  ieee802154Narrow.anchor[16].appl  "Number of AN Reports with ACK"  TV
vector 387  ieee802154Narrow.anchor[16].appl  "Number of packets sent from mobile node 0"  TV
vector 388  ieee802154Narrow.anchor[16].appl  "Effectiveness in each anchor"  TV
vector 389  ieee802154Narrow.anchor[17].appl  "Dropped Packets in AN - No ACK received"  TV
vector 390  ieee802154Narrow.anchor[17].appl  "Dropped Packets in AN - Max MAC BackOff tries"  TV
vector 391  ieee802154Narrow.anchor[17].appl  "Number of AN Reports with ACK"  TV
vector 393  ieee802154Narrow.anchor[17].appl  "Number of packets sent from mobile node 0"  TV
vector 394  ieee802154Narrow.anchor[17].appl  "Effectiveness in each anchor"  TV
vector 395  ieee802154Narrow.anchor[18].appl  "Dropped Packets in AN - No ACK received"  TV
vector 396  ieee802154Narrow.anchor[18].appl  "Dropped Packets in AN - Max MAC BackOff tries"  TV
vector 397  ieee802154Narrow.anchor[18].appl  "Number of AN Reports with ACK"  TV
vector 399  ieee802154Narrow.anchor[18].appl  "Number of packets sent from mobile node 0"  TV
vector 400  ieee802154Narrow.anchor[18].appl  "Effectiveness in each anchor"  TV
vector 401  ieee802154Narrow.anchor[19].appl  "Dropped Packets in AN - No ACK received"  TV
vector 402  ieee802154Narrow.anchor[19].appl  "Dropped Packets in AN - Max MAC BackOff tries"  TV
vector 403  ieee802154Narrow.anchor[19].appl  "Number of AN Reports with ACK"  TV
vector 405  ieee802154Narrow.anchor[19].appl  "Number of packets sent from mobile node 0"  TV
vector 406  ieee802154Narrow.anchor[19].appl  "Effectiveness in each anchor"  TV
vector 407  ieee802154Narrow.anchor[20].appl  "Dropped Packets in AN - No ACK received"  TV
vector 408  ieee802154Narrow.anchor[20].appl  "Dropped Packets in AN - Max MAC BackOff tries"  TV
vector 409  ieee802154Narrow.anchor[20].appl  "Number of AN Reports with ACK"  TV
vector 411  ieee802154Narrow.anchor[20].appl  "Number of packets sent from mobile node 0"  TV
vector 412  ieee802154Narrow.anchor[20].appl  "Effectiveness in each anchor"  TV
vector 413  ieee802154Narrow.anchor[21].appl  "Dropped Packets in AN - No ACK received"  TV
vector 414  ieee802154Narrow.anchor[21].appl  "Dropped Packets in AN - Max MAC BackOff tries"  TV
vector 415  ieee802154Narrow.anchor[21].appl  "Number of AN Reports with ACK"  TV
vector 417  ieee802154Narrow.anchor[21].appl  "Number of packets sent from mobile node 0"  TV
vector 418  ieee802154Narrow.anchor[21].appl  "Effectiveness in each anchor"  TV
vector 419  ieee802154Narrow.anchor[22].appl  "Dropped Packets in AN - No ACK received"  TV
vector 420  ieee802154Narrow.anchor[22].appl  "Dropped Packets in AN - Max MAC BackOff tries"  TV
vector 421  ieee802154Narrow.anchor[22].appl  "Number of AN Reports with ACK"  TV
vector 423  ieee802154Narrow.anchor[22].appl  "Number of packets sent from mobile node 0"  TV
vector 424  ieee802154Narrow.anchor[22].appl  "Effectiveness in each anchor"  TV
vector 425  ieee802154Narrow.anchor[23].appl  "Dropped Packets in AN - No ACK received"  TV
vector 426  ieee802154Narrow.anchor[23].appl  "Dropped Packets in AN - Max MAC BackOff tries"  TV
vector 427  ieee802154Narrow.anchor[23].appl  "Number of AN Reports with ACK"  TV
vector 429  ieee802154Narrow.anchor[23].appl  "Number of packets sent from mobile node 0"  TV
vector 430  ieee802154Narrow.anchor[23].appl  "Effectiveness in each anchor"  TV
vector 431  ieee802154Narrow.anchor[24].appl  "Dropped Packets in AN - No ACK received"  TV
vector 432  ieee802154Narrow.anchor[24].appl  "Dropped Packets in AN - Max MAC BackOff tries"  TV
vector 433  ieee802154Narrow.anchor[24].appl  "Number of AN Reports with ACK"  TV
vector 435  ieee802154Narrow.anchor[24].appl  "Number of packets sent from mobile node 0"  TV
vector 436  ieee802154Narrow.anchor[24].appl  "Effectiveness in each anchor"  TV
vector 437  ieee802154Narrow.computer[0].appl  received-packets-per-period  TV
vector 438  ieee802154Narrow.computer[0].appl  received-no-repeated-packets-per-period  TV
vector 440  ieee802154Narrow.computer[0].appl  "Number of packets sent from anchor 8"  TV
vector 441  ieee802154Narrow.computer[0].appl  "Number of packets sent from anchor 12"  TV
vector 442  ieee802154Narrow.computer[0].appl  "Number of packets sent from anchor 16"  TV
vector 443  ieee802154Narrow.computer[0].appl  "Number of packets sent from anchor 20"  TV
vector 439  ieee802154Narrow.computer[0].appl  "Number of packets sent from mobile node 0"  TV
vector 444  ieee802154Narrow.anchor[0].appl  ""  TV
vector 445  ieee802154Narrow.anchor[0].appl  ""  TV
vector 446  ieee802154Narrow.anchor[1].appl  ""  TV
vector 447  ieee802154Narrow.anchor[1].appl  ""  TV
vector 448  ieee802154Narrow.anchor[2].appl  ""  TV
vector 449  ieee802154Narrow.anchor[2].appl  ""  TV
vector 450  ieee802154Narrow.anchor[3].appl  ""  TV
vector 451  ieee802154Narrow.anchor[3].appl  ""  TV
vector 452  ieee802154Narrow.anchor[4].appl  ""  TV
vector 453  ieee802154Narrow.anchor[4].appl  ""  TV
vector 454  ieee802154Narrow.anchor[5].appl  ""  TV
vector 455  ieee802154Narrow.anchor[5].appl  ""  TV
vector 456  ieee802154Narrow.anchor[6].appl  ""  TV
vector 457  ieee802154Narrow.anchor[6].appl  ""  TV
vector 458  ieee802154Narrow.anchor[7].appl  ""  TV
vector 459  ieee802154Narrow.anchor[7].appl  ""  TV
vector 460  ieee802154Narrow.anchor[8].appl  ""  TV
vector 461  ieee802154Narrow.anchor[8].appl  ""  TV
vector 462  ieee802154Narrow.anchor[9].appl  ""  TV
vector 463  ieee802154Narrow.anchor[9].appl  ""  TV
vector 464  ieee802154Narrow.anchor[10].appl  ""  TV
vector 465  ieee802154Narrow.anchor[10].appl  ""  TV
vector 466  ieee802154Narrow.anchor[11].appl  ""  TV
vector 467  ieee802154Narrow.anchor[11].appl  ""  TV
vector 468  ieee802154Narrow.anchor[12].appl  ""  TV
vector 469  ieee802154Narrow.anchor[12].appl  ""  TV
vector 470  ieee802154Narrow.anchor[13].appl  ""  TV
vector 471  ieee802154Narrow.anchor[13].appl  ""  TV
vector 472  ieee802154Narrow.anchor[14].appl  ""  TV
vector 473  ieee802154Narrow.anchor[14].appl  ""  TV
vector 474  ieee802154Narrow.anchor[15].appl  ""  TV
vector 475  ieee802154Narrow.anchor[15].appl  ""  TV
vector 476  ieee802154Narrow.anchor[16].appl  ""  TV
vector 477  ieee802154Narrow.anchor[16].appl  ""  TV
vector 478  ieee802154Narrow.anchor[17].appl  ""  TV
vector 479  ieee802154Narrow.anchor[17].appl  ""  TV
vector 480  ieee802154Narrow.anchor[18].appl  ""  TV
vector 481  ieee802154Narrow.anchor[18].appl  ""  TV
vector 482  ieee802154Narrow.anchor[19].appl  ""  TV
vector 483  ieee802154Narrow.anchor[19].appl  ""  TV
vector 484  ieee802154Narrow.anchor[20].appl  ""  TV
vector 485  ieee802154Narrow.anchor[20].appl  ""  TV
vector 486  ieee802154Narrow.anchor[21].appl  ""  TV
vector 487  ieee802154Narrow.anchor[21].appl  ""  TV
vector 488  ieee802154Narrow.anchor[22].appl  ""  TV
vector 489  ieee802154Narrow.anchor[22].appl  ""  TV
vector 490  ieee802154Narrow.anchor[23].appl  ""  TV
vector 491  ieee802154Narrow.anchor[23].appl  ""  TV
vector 492  ieee802154Narrow.anchor[24].appl  ""  TV
vector 493  ieee802154Narrow.anchor[24].appl  ""  TV
287	1.86	6
287	4.28	0
287	6.7	0
287	9.12	0
287	11.54	0
287	13.96	0
287	16.38	0
287	18.8	0
287	21.22	0
287	23.64	0
287	26.06	0
287	28.48	0
287	30.9	0
287	33.32	0
287	35.74	0
287	38.16	0
287	40.58	0
287	43	0
287	45.42	0
287	47.84	0
287	50.26	0
287	52.68	0
287	55.1	0
287	57.52	0
287	59.94	0
287	62.36	0
287	64.78	0
287	67.2	0
287	69.62	0
287	72.04	0
287	74.46	0
287	76.88	0
287	79.3	0
287	81.72	0
287	84.14	0
287	86.56	0
287	88.98	0
287	91.4	0
287	93.82	0
287	96.24	0
287	98.66	0
287	101.08	0
287	103.5	0
287	105.92	0
287	108.34	0
287	110.76	0
287	113.18	0
287	115.6	0
287	118.02	0
287	120.44	0
287	122.86	0
287	125.28	0
287	127.7	0
287	130.12	0
287	132.54	0
287	134.96	0
287	137.38	0
287	139.8	0
287	142.22	0
287	144.64	0
287	147.06	0
287	149.48	0
287	151.9	0
287	154.32	0
287	156.74	0
287	159.16	0
287	161.58	0
287	164	0
287	166.42	0
287	168.84	0
287	171.26	0
287	173.68	0
287	176.1	0
287	178.52	0
287	180.94	0
287	183.36	0
287	185.78	0
287	188.2	0
287	190.62	0
287	193.04	0
287	195.46	0
287	197.88	0
287	200.3	0
287	202.72	0
287	205.14	0
287	207.56	0
287	209.98	0
287	212.4	0
287	214.82	0
287	217.24	0
287	219.66	0
287	222.08	0
287	224.5	0
287	226.92	0
287	229.34	0
287	231.76	0
287	234.18	0
287	236.6	0
287	239.02	0
287	241.44	0
287	243.86	0
287	246.28	0
287	248.7	0
287	251.12	0
287	253.54	0
287	255.96	0
287	258.38	0
287	260.8	0
287	263.22	0
287	265.64	0
287	268.06	0
287	270.48	0
287	272.9	0
287	275.32	0
287	277.74	0
287	280.16	0
287	282.58	0
287	285	0
287	287.42	0
287	289.84	0
287	292.26	0
287	294.68	0
287	297.1	0
287	299.52	0
287	301.94	0
287	304.36	0
287	306.78	0
287	309.2	0
287	311.62	0
287	314.04	0
287	316.46	0
287	318.88	0
287	321.3	0
287	323.72	0
287	326.14	0
287	328.56	0
287	330.98	0
287	333.4	0
287	335.82	0
287	338.24	0
287	340.66	0
287	343.08	0
287	345.5	0
287	347.92	0
287	350.34	0
287	352.76	0
287	355.18	0
287	357.6	0
287	360.02	0
287	362.44	0
287	364.86	0
287	367.28	0
287	369.7	0
287	372.12	0
287	374.54	0
287	376.96	0
287	379.38	0
287	381.8	0
287	384.22	0
287	386.64	0
287	389.06	0
287	391.48	0
287	393.9	0
287	396.32	0
287	398.74	0
287	401.16	0
287	403.58	0
287	406	0
287	408.42	0
287	410.84	0
287	413.26	0
287	415.68	0
287	418.1	0
287	420.52	0
287	422.94	0
287	425.36	0
287	427.78	0
287	430.2	0
287	432.62	0
287	435.04	0
287	437.46	0
287	439.88	0
287	442.3	0
287	444.72	0
287	447.14	0
287	449.56	0
287	451.98	0
287	454.4	0
287	456.82	0
287	459.24	0
287	461.66	0
287	464.08	0
287	466.5	0
287	468.92	0
287	471.34	0
287	473.76	0
287	476.18	0
287	478.6	0
287	481.02	0
287	483.44	0
288	1.86	0
288	4.28	1
288	6.7	0
288	9.12	0
288	11.54	0
288	13.96	0
288	16.38	0
288	18.8	0
288	21.22	0
288	23.64	0
288	26.06	0
288	28.48	0
288	30.9	0
288	33.32	0
288	35.74	0
288	38.16	0
288	40.58	0
288	43	0
288	45.42	0
288	47.84	0
288	50.26	0
288	52.68	0
288	55.1	0
288	57.52	0
288	59.94	0
288	62.36	0
288	64.78	0
288	67.2	0
288	69.62	0
288	72.04	0
288	74.46	0
288	76.88	0
288	79.3	0
288	81.72	0
288	84.14	0
288	86.56	0
288	88.98	0
288	91.4	0
288	93.82	0
288	96.24	0
288	98.66	0
288	101.08	0
288	103.5	0
288	105.92	0
288	108.34	0
288	110.76	0
288	113.18	0
288	115.6	0
288	118.02	0
288	120.44	0
288	122.86	0
288	125.28	0
288	127.7	0
288	130.12	0
288	132.54	0
288	134.96	0
288	137.38	0
288	139.8	0
288	142.22	0
288	144.64	0
288	147.06	0
288	149.48	0
288	151.9	0
288	154.32	0
288	156.74	0
288	159.16	0
288	161.58	0
288	164	0
288	166.42	0
288	168.84	0
288	171.26	0
288	173.68	0
288	176.1	0
288	178.52	0
288	180.94	0
288	183.36	0
288	185.78	0
288	188.2	0
288	190.62	0
288	193.04	0
288	195.46	0
288	197.88	0
288	200.3	0
288	202.72	0
288	205.14	0
288	207.56	0
288	209.98	0
288	212.4	0
288	214.82	0
288	217.24	0
288	219.66	0
288	222.08	0
288	224.5	0
288	226.92	0
288	229.34	0
288	231.76	0
288	234.18	0
288	236.6	0
288	239.02	0
288	241.44	0
288	243.86	0
288	246.28	0
288	248.7	0
288	251.12	0
288	253.54	0
288	255.96	0
288	258.38	0
288	260.8	0
288	263.22	0
288	265.64	0
288	268.06	0
288	270.48	0
288	272.9	0
288	275.32	0
288	277.74	0
288	280.16	0
288	282.58	0
288	285	0
288	287.42	0
288	289.84	0
288	292.26	0
288	294.68	0
288	297.1	0
288	299.52	0
288	301.94	0
288	304.36	0
288	306.78	0
288	309.2	0
288	311.62	0
288	314.04	0
288	316.46	0
288	318.88	0
288	321.3	0
288	323.72	0
288	326.14	0
288	328.56	0
288	330.98	0
288	333.4	0
288	335.82	0
288	338.24	0
288	340.66	0
288	343.08	0
288	345.5	0
288	347.92	0
288	350.34	0
288	352.76	0
288	355.18	0
288	357.6	0
288	360.02	0
288	362.44	0
288	364.86	0
288	367.28	0
288	369.7	0
288	372.12	0
288	374.54	0
288	376.96	0
288	379.38	0
288	381.8	0
288	384.22	0
288	386.64	0
288	389.06	0
288	391.48	0
288	393.9	0
288	396.32	0
288	398.74	0
288	401.16	0
288	403.58	0
288	406	0
288	408.42	0
288	410.84	0
288	413.26	0
288	415.68	0
288	418.1	0
288	420.52	0
288	422.94	0
288	425.36	0
288	427.78	0
288	430.2	0
288	432.62	0
288	435.04	0
288	437.46	0
288	439.88	0
288	442.3	0
288	444.72	0
288	447.14	0
288	449.56	0
288	451.98	0
288	454.4	0
288	456.82	0
288	459.24	0
288	461.66	0
288	464.08	0
288	466.5	0
288	468.92	0
288	471.34	0
288	473.76	0
288	476.18	0
288	478.6	0
288	481.02	0
288	483.44	0
289	1.86	2
289	4.28	2
289	6.7	2
289	9.12	2
289	11.54	2
289	13.96	2
289	16.38	2
289	18.8	2
289	21.22	2
289	23.64	2
289	26.06	2
289	28.48	2
289	30.9	2
289	33.32	1
289	35.74	1
289	38.16	1
289	40.58	1
289	43	1
289	45.42	0
289	47.84	0
289	50.26	0
289	52.68	0
289	55.1	0
289	57.52	0
289	59.94	0
289	62.36	0
289	64.78	0
289	67.2	0
289	69.62	0
289	72.04	0
289	74.46	1
289	76.88	1
289	79.3	1
289	81.72	1
289	84.14	1
289	86.56	1
289	88.98	1
289	91.4	1
289	93.82	1
289	96.24	1
289	98.66	1
289	101.08	1
289	103.5	1
289	105.92	1
289	108.34	1
289	110.76	1
289	113.18	2
289	115.6	2
289	118.02	2
289	120.44	1
289	122.86	1
289	125.28	1
289	127.7	1
289	130.12	0
289	132.54	0
289	134.96	0
289	137.38	0
289	139.8	1
289	142.22	1
289	144.64	1
289	147.06	2
289	149.48	2
289	151.9	2
289	154.32	2
289	156.74	2
289	159.16	2
289	161.58	2
289	164	1
289	166.42	1
289	168.84	1
289	171.26	1
289	173.68	1
289	176.1	1
289	178.52	1
289	180.94	1
289	183.36	1
289	185.78	1
289	188.2	1
289	190.62	1
289	193.04	1
289	195.46	1
289	197.88	1
289	200.3	1
289	202.72	1
289	205.14	1
289	207.56	1
289	209.98	1
289	212.4	1
289	214.82	1
289	217.24	1
289	219.66	1
289	222.08	1
289	224.5	1
289	226.92	1
289	229.34	1
289	231.76	0
289	234.18	0
289	236.6	0
289	239.02	0
289	241.44	0
289	243.86	0
289	246.28	0
289	248.7	0
289	251.12	0
289	253.54	1
289	255.96	1
289	258.38	1
289	260.8	1
289	263.22	1
289	265.64	1
289	268.06	1
289	270.48	1
289	272.9	1
289	275.32	1
289	277.74	2
289	280.16	2
289	282.58	2
289	285	2
289	287.42	1
289	289.84	1
289	292.26	1
289	294.68	1
289	297.1	1
289	299.52	1
289	301.94	1
289	304.36	1
289	306.78	1
289	309.2	1
289	311.62	1
289	314.04	1
289	316.46	1
289	318.88	1
289	321.3	1
289	323.72	0
289	326.14	0
289	328.56	0
289	330.98	0
289	333.4	0
289	335.82	0
289	338.24	0
289	340.66	0
289	343.08	0
289	345.5	0
289	347.92	0
289	350.34	0
289	352.76	0
289	355.18	0
289	357.6	0
289	360.02	0
289	362.44	0
289	364.86	1
289	367.28	1
289	369.7	1
289	372.12	1
289	374.54	1
289	376.96	1
289	379.38	1
289	381.8	1
289	384.22	1
289	386.64	1
289	389.06	1
289	391.48	1
289	393.9	1
289	396.32	1
289	398.74	1
289	401.16	1
289	403.58	1
289	406	1
289	408.42	1
289	410.84	1
289	413.26	1
289	415.68	1
289	418.1	1
289	420.52	1
289	422.94	1
289	425.36	1
289	427.78	1
289	430.2	1
289	432.62	1
289	435.04	0
289	437.46	0
289	439.88	1
289	442.3	1
289	444.72	1
289	447.14	1
289	449.56	1
289	451.98	1
289	454.4	1
289	456.82	1
289	459.24	1
289	461.66	1
289	464.08	1
289	466.5	1
289	468.92	1
289	471.34	1
289	473.76	1
289	476.18	1
289	478.6	1
289	481.02	0
289	483.44	0
290	0.82	3
290	3.24	3
290	5.66	2
290	8.08	2
290	10.5	2
290	12.92	2
290	15.34	2
290	17.76	2
290	20.18	2
290	22.6	2
290	25.02	2
290	27.44	2
290	29.86	2
290	32.28	1
290	34.7	1
290	37.12	1
290	39.54	1
290	41.96	1
290	44.38	0
290	46.8	0
290	49.22	0
290	51.64	0
290	54.06	0
290	56.48	0
290	58.9	0
290	61.32	0
290	63.74	0
290	66.16	0
290	68.58	0
290	71	0
290	73.42	1
290	75.84	1
290	78.26	1
290	80.68	1
290	83.1	1
290	85.52	1
290	87.94	1
290	90.36	1
290	92.78	1
290	95.2	1
290	97.62	1
290	100.04	1
290	102.46	1
290	104.88	1
290	107.3	1
290	109.72	1
290	112.14	2
290	114.56	2
290	116.98	2
290	119.4	1
290	121.82	1
290	124.24	1
290	126.66	1
290	129.08	0
290	131.5	0
290	133.92	0
290	136.34	0
290	138.76	1
290	141.18	1
290	143.6	1
290	146.02	2
290	148.44	2
290	150.86	2
290	153.28	2
290	155.7	2
290	158.12	2
290	160.54	2
290	162.96	1
290	165.38	1
290	167.8	1
290	170.22	1
290	172.64	1
290	175.06	1
290	177.48	1
290	179.9	1
290	182.32	1
290	184.74	1
290	187.16	1
290	189.58	1
290	192	1
290	194.42	1
290	196.84	1
290	199.26	1
290	201.68	1
290	204.1	1
290	206.52	1
290	208.94	1
290	211.36	1
290	213.78	1
290	216.2	1
290	218.62	1
290	221.04	1
290	223.46	1
290	225.88	1
290	228.3	1
290	230.72	0
290	233.14	0
290	235.56	0
290	237.98	0
290	240.4	0
290	242.82	0
290	245.24	0
290	247.66	0
290	250.08	0
290	252.5	1
290	254.92	1
290	257.34	1
290	259.76	1
290	262.18	1
290	264.6	1
290	267.02	1
290	269.44	1
290	271.86	1
290	274.28	1
290	276.7	2
290	279.12	2
290	281.54	2
290	283.96	2
290	286.38	1
290	288.8	1
290	291.22	1
290	293.64	1
290	296.06	1
290	298.48	1
290	300.9	1
290	303.32	1
290	305.74	1
290	308.16	1
290	310.58	1
290	313	1
290	315.42	1
290	317.84	1
290	320.26	1
290	322.68	0
290	325.1	0
290	327.52	0
290	329.94	0
290	332.36	0
290	334.78	0
290	337.2	0
290	339.62	0
290	342.04	0
290	344.46	0
290	346.88	0
290	349.3	0
290	351.72	0
290	354.14	0
290	356.56	0
290	358.98	0
290	361.4	0
290	363.82	1
290	366.24	1
290	368.66	1
290	371.08	1
290	373.5	1
290	375.92	1
290	378.34	1
290	380.76	1
290	383.18	1
290	385.6	1
290	388.02	1
290	390.44	1
290	392.86	1
290	395.28	1
290	397.7	1
290	400.12	1
290	402.54	1
290	404.96	1
290	407.38	1
290	409.8	1
290	412.22	1
290	414.64	1
290	417.06	1
290	419.48	1
290	421.9	1
290	424.32	1
290	426.74	1
290	429.16	1
290	431.58	1
290	434	0
290	436.42	0
290	438.84	1
290	441.26	1
290	443.68	1
290	446.1	1
290	448.52	1
290	450.94	1
290	453.36	1
290	455.78	1
290	458.2	1
290	460.62	1
290	463.04	1
290	465.46	1
290	467.88	1
290	470.3	1
290	472.72	1
290	475.14	1
290	477.56	1
290	479.98	0
290	482.4	0
291	1.86	0
291	4.28	0
291	6.7	0
291	9.12	0
291	11.54	0
291	13.96	0
291	16.38	0
291	18.8	0
291	21.22	0
291	23.64	0
291	26.06	0
291	28.48	0
291	30.9	0
291	33.32	0
291	35.74	0
291	38.16	0
291	40.58	0
291	43	0
291	45.42	0
291	47.84	0
291	50.26	0
291	52.68	0
291	55.1	0
291	57.52	0
291	59.94	0
291	62.36	0
291	64.78	0
291	67.2	0
291	69.62	0
291	72.04	0
291	74.46	0
291	76.88	0
291	79.3	0
291	81.72	0
291	84.14	0
291	86.56	0
291	88.98	0
291	91.4	0
291	93.82	0
291	96.24	0
291	98.66	0
291	101.08	0
291	103.5	0
291	105.92	0
291	108.34	0
291	110.76	0
291	113.18	0
291	115.6	0
291	118.02	0
291	120.44	0
291	122.86	0
291	125.28	0
291	127.7	0
291	130.12	0
291	132.54	0
291	134.96	0
291	137.38	0
291	139.8	0
291	142.22	0
291	144.64	0
291	147.06	0
291	149.48	0
291	151.9	0
291	154.32	0
291	156.74	0
291	159.16	0
291	161.58	0
291	164	0
291	166.42	0
291	168.84	0
291	171.26	0
291	173.68	0
291	176.1	0
291	178.52	0
291	180.94	0
291	183.36	0
291	185.78	0
291	188.2	0
291	190.62	0
291	193.04	0
291	195.46	0
291	197.88	0
291	200.3	0
291	202.72	0
291	205.14	0
291	207.56	0
291	209.98	0
291	212.4	0
291	214.82	0
291	217.24	0
291	219.66	0
291	222.08	0
291	224.5	0
291	226.92	0
291	229.34	0
291	231.76	0
291	234.18	0
291	236.6	0
291	239.02	0
291	241.44	0
291	243.86	0
291	246.28	0
291	248.7	0
291	251.12	0
291	253.54	0
291	255.96	0
291	258.38	0
291	260.8	0
291	263.22	0
291	265.64	0
291	268.06	0
291	270.48	0
291	272.9	0
291	275.32	0
291	277.74	1
291	280.16	1
291	282.58	1
291	285	1
291	287.42	0
291	289.84	0
291	292.26	0
291	294.68	0
291	297.1	0
291	299.52	0
291	301.94	0
291	304.36	0
291	306.78	0
291	309.2	0
291	311.62	0
291	314.04	0
291	316.46	0
291	318.88	0
291	321.3	0
291	323.72	0
291	326.14	0
291	328.56	0
291	330.98	0
291	333.4	0
291	335.82	0
291	338.24	0
291	340.66	0
291	343.08	0
291	345.5	0
291	347.92	0
291	350.34	0
291	352.76	0
291	355.18	0
291	357.6	0
291	360.02	0
291	362.44	0
291	364.86	0
291	367.28	0
291	369.7	0
291	372.12	0
291	374.54	0
291	376.96	0
291	379.38	0
291	381.8	0
291	384.22	0
291	386.64	0
291	389.06	0
291	391.48	0
291	393.9	0
291	396.32	0
291	398.74	0
291	401.16	0
291	403.58	0
291	406	0
291	408.42	0
291	410.84	0
291	413.26	0
291	415.68	0
291	418.1	0
291	420.52	0
291	422.94	0
291	425.36	0
291	427.78	0
291	430.2	0
291	432.62	0
291	435.04	0
291	437.46	0
291	439.88	0
291	442.3	0
291	444.72	0
291	447.14	0
291	449.56	0
291	451.98	0
291	454.4	0
291	456.82	0
291	459.24	0
291	461.66	0
291	464.08	0
291	466.5	0
291	468.92	0
291	471.34	0
291	473.76	0
291	476.18	0
291	478.6	0
291	481.02	0
291	483.44	0
292	1.86	1
292	4.28	0.91666666666667
292	6.7	0.83333333333333
292	9.12	0.83333333333333
292	11.54	0.81439393939394
292	13.96	0.88492063492063
292	16.38	0.96536796536797
292	18.8	0.96536796536797
292	21.22	0.98809523809524
292	23.64	1
292	26.06	1
292	28.48	1
292	30.9	1
292	33.32	0.97826086956522
292	35.74	0.95652173913043
292	38.16	0.9445652173913
292	40.58	0.9445652173913
292	43	0.95481101778656
292	45.42	0.96452245670996
292	47.84	0.96482683982684
292	50.26	0.96482683982684
292	52.68	0.97619047619048
292	55.1	0.98809523809524