version 2
run Red8012154-0-20121122-19:25:46-6278
attr configname Red8012154
attr datetime 20121122-19:25:46
attr experiment Red8012154
attr inifile omnetpp.ini
attr iterationvars ""
attr iterationvars2 $repetition=0
attr measurement ""
attr network ieee802154Narrow
attr processid 6278
attr repetition 0
attr replication #0
attr resultdir results
attr runnumber 0
attr seedset 596

vector 255  ieee802154Narrow.anchor[0].appl  "Number of packets from this anchor"  TV
vector 261  ieee802154Narrow.anchor[1].appl  "Number of packets from this anchor"  TV
vector 267  ieee802154Narrow.anchor[2].appl  "Number of packets from this anchor"  TV
vector 273  ieee802154Narrow.anchor[3].appl  "Number of packets from this anchor"  TV
vector 279  ieee802154Narrow.anchor[4].appl  "Number of packets from this anchor"  TV
vector 285  ieee802154Narrow.anchor[5].appl  "Number of packets from this anchor"  TV
vector 291  ieee802154Narrow.anchor[6].appl  "Number of packets from this anchor"  TV
vector 297  ieee802154Narrow.anchor[7].appl  "Number of packets from this anchor"  TV
vector 303  ieee802154Narrow.anchor[8].appl  "Number of packets from this anchor"  TV
vector 309  ieee802154Narrow.anchor[9].appl  "Number of packets from this anchor"  TV
vector 315  ieee802154Narrow.anchor[10].appl  "Number of packets from this anchor"  TV
vector 321  ieee802154Narrow.anchor[11].appl  "Number of packets from this anchor"  TV
vector 327  ieee802154Narrow.anchor[12].appl  "Number of packets from this anchor"  TV
vector 333  ieee802154Narrow.anchor[13].appl  "Number of packets from this anchor"  TV
vector 339  ieee802154Narrow.anchor[14].appl  "Number of packets from this anchor"  TV
vector 345  ieee802154Narrow.anchor[15].appl  "Number of packets from this anchor"  TV
vector 351  ieee802154Narrow.anchor[16].appl  "Number of packets from this anchor"  TV
vector 357  ieee802154Narrow.anchor[17].appl  "Number of packets from this anchor"  TV
vector 363  ieee802154Narrow.anchor[18].appl  "Number of packets from this anchor"  TV
vector 369  ieee802154Narrow.anchor[19].appl  "Number of packets from this anchor"  TV
vector 375  ieee802154Narrow.anchor[20].appl  "Number of packets from this anchor"  TV
vector 381  ieee802154Narrow.anchor[21].appl  "Number of packets from this anchor"  TV
vector 387  ieee802154Narrow.anchor[22].appl  "Number of packets from this anchor"  TV
vector 393  ieee802154Narrow.anchor[23].appl  "Number of packets from this anchor"  TV
vector 399  ieee802154Narrow.anchor[24].appl  "Number of packets from this anchor"  TV
vector 252  ieee802154Narrow.anchor[0].appl  "Dropped Packets in AN - No ACK received"  TV
vector 253  ieee802154Narrow.anchor[0].appl  "Dropped Packets in AN - Max MAC BackOff tries"  TV
vector 254  ieee802154Narrow.anchor[0].appl  "Number of AN Reports with ACK"  TV
vector 256  ieee802154Narrow.anchor[0].appl  "Number of packets sent from mobile node 0"  TV
vector 257  ieee802154Narrow.anchor[0].appl  "Effectiveness in each anchor"  TV
vector 258  ieee802154Narrow.anchor[1].appl  "Dropped Packets in AN - No ACK received"  TV
vector 259  ieee802154Narrow.anchor[1].appl  "Dropped Packets in AN - Max MAC BackOff tries"  TV
vector 260  ieee802154Narrow.anchor[1].appl  "Number of AN Reports with ACK"  TV
vector 262  ieee802154Narrow.anchor[1].appl  "Number of packets sent from mobile node 0"  TV
vector 263  ieee802154Narrow.anchor[1].appl  "Effectiveness in each anchor"  TV
vector 264  ieee802154Narrow.anchor[2].appl  "Dropped Packets in AN - No ACK received"  TV
vector 265  ieee802154Narrow.anchor[2].appl  "Dropped Packets in AN - Max MAC BackOff tries"  TV
vector 266  ieee802154Narrow.anchor[2].appl  "Number of AN Reports with ACK"  TV
vector 268  ieee802154Narrow.anchor[2].appl  "Number of packets sent from mobile node 0"  TV
vector 269  ieee802154Narrow.anchor[2].appl  "Effectiveness in each anchor"  TV
vector 270  ieee802154Narrow.anchor[3].appl  "Dropped Packets in AN - No ACK received"  TV
vector 271  ieee802154Narrow.anchor[3].appl  "Dropped Packets in AN - Max MAC BackOff tries"  TV
vector 272  ieee802154Narrow.anchor[3].appl  "Number of AN Reports with ACK"  TV
vector 274  ieee802154Narrow.anchor[3].appl  "Number of packets sent from mobile node 0"  TV
vector 275  ieee802154Narrow.anchor[3].appl  "Effectiveness in each anchor"  TV
vector 276  ieee802154Narrow.anchor[4].appl  "Dropped Packets in AN - No ACK received"  TV
vector 277  ieee802154Narrow.anchor[4].appl  "Dropped Packets in AN - Max MAC BackOff tries"  TV
vector 278  ieee802154Narrow.anchor[4].appl  "Number of AN Reports with ACK"  TV
vector 280  ieee802154Narrow.anchor[4].appl  "Number of packets sent from mobile node 0"  TV
vector 281  ieee802154Narrow.anchor[4].appl  "Effectiveness in each anchor"  TV
vector 282  ieee802154Narrow.anchor[5].appl  "Dropped Packets in AN - No ACK received"  TV
vector 283  ieee802154Narrow.anchor[5].appl  "Dropped Packets in AN - Max MAC BackOff tries"  TV
vector 284  ieee802154Narrow.anchor[5].appl  "Number of AN Reports with ACK"  TV
vector 286  ieee802154Narrow.anchor[5].appl  "Number of packets sent from mobile node 0"  TV
vector 287  ieee802154Narrow.anchor[5].appl  "Effectiveness in each anchor"  TV
vector 288  ieee802154Narrow.anchor[6].appl  "Dropped Packets in AN - No ACK received"  TV
vector 289  ieee802154Narrow.anchor[6].appl  "Dropped Packets in AN - Max MAC BackOff tries"  TV
vector 290  ieee802154Narrow.anchor[6].appl  "Number of AN Reports with ACK"  TV
vector 292  ieee802154Narrow.anchor[6].appl  "Number of packets sent from mobile node 0"  TV
vector 293  ieee802154Narrow.anchor[6].appl  "Effectiveness in each anchor"  TV
vector 294  ieee802154Narrow.anchor[7].appl  "Dropped Packets in AN - No ACK received"  TV
vector 295  ieee802154Narrow.anchor[7].appl  "Dropped Packets in AN - Max MAC BackOff tries"  TV
vector 296  ieee802154Narrow.anchor[7].appl  "Number of AN Reports with ACK"  TV
vector 298  ieee802154Narrow.anchor[7].appl  "Number of packets sent from mobile node 0"  TV
vector 299  ieee802154Narrow.anchor[7].appl  "Effectiveness in each anchor"  TV
vector 300  ieee802154Narrow.anchor[8].appl  "Dropped Packets in AN - No ACK received"  TV
vector 301  ieee802154Narrow.anchor[8].appl  "Dropped Packets in AN - Max MAC BackOff tries"  TV
vector 302  ieee802154Narrow.anchor[8].appl  "Number of AN Reports with ACK"  TV
vector 304  ieee802154Narrow.anchor[8].appl  "Number of packets sent from mobile node 0"  TV
vector 305  ieee802154Narrow.anchor[8].appl  "Effectiveness in each anchor"  TV
vector 306  ieee802154Narrow.anchor[9].appl  "Dropped Packets in AN - No ACK received"  TV
vector 307  ieee802154Narrow.anchor[9].appl  "Dropped Packets in AN - Max MAC BackOff tries"  TV
vector 308  ieee802154Narrow.anchor[9].appl  "Number of AN Reports with ACK"  TV
vector 310  ieee802154Narrow.anchor[9].appl  "Number of packets sent from mobile node 0"  TV
vector 311  ieee802154Narrow.anchor[9].appl  "Effectiveness in each anchor"  TV
vector 312  ieee802154Narrow.anchor[10].appl  "Dropped Packets in AN - No ACK received"  TV
vector 313  ieee802154Narrow.anchor[10].appl  "Dropped Packets in AN - Max MAC BackOff tries"  TV
vector 314  ieee802154Narrow.anchor[10].appl  "Number of AN Reports with ACK"  TV
vector 316  ieee802154Narrow.anchor[10].appl  "Number of packets sent from mobile node 0"  TV
vector 317  ieee802154Narrow.anchor[10].appl  "Effectiveness in each anchor"  TV
vector 318  ieee802154Narrow.anchor[11].appl  "Dropped Packets in AN - No ACK received"  TV
vector 319  ieee802154Narrow.anchor[11].appl  "Dropped Packets in AN - Max MAC BackOff tries"  TV
vector 320  ieee802154Narrow.anchor[11].appl  "Number of AN Reports with ACK"  TV
vector 322  ieee802154Narrow.anchor[11].appl  "Number of packets sent from mobile node 0"  TV
vector 323  ieee802154Narrow.anchor[11].appl  "Effectiveness in each anchor"  TV
vector 324  ieee802154Narrow.anchor[12].appl  "Dropped Packets in AN - No ACK received"  TV
vector 325  ieee802154Narrow.anchor[12].appl  "Dropped Packets in AN - Max MAC BackOff tries"  TV
vector 326  ieee802154Narrow.anchor[12].appl  "Number of AN Reports with ACK"  TV
vector 328  ieee802154Narrow.anchor[12].appl  "Number of packets sent from mobile node 0"  TV
vector 329  ieee802154Narrow.anchor[12].appl  "Effectiveness in each anchor"  TV
vector 330  ieee802154Narrow.anchor[13].appl  "Dropped Packets in AN - No ACK received"  TV
vector 331  ieee802154Narrow.anchor[13].appl  "Dropped Packets in AN - Max MAC BackOff tries"  TV
vector 332  ieee802154Narrow.anchor[13].appl  "Number of AN Reports with ACK"  TV
vector 334  ieee802154Narrow.anchor[13].appl  "Number of packets sent from mobile node 0"  TV
vector 335  ieee802154Narrow.anchor[13].appl  "Effectiveness in each anchor"  TV
vector 336  ieee802154Narrow.anchor[14].appl  "Dropped Packets in AN - No ACK received"  TV
vector 337  ieee802154Narrow.anchor[14].appl  "Dropped Packets in AN - Max MAC BackOff tries"  TV
vector 338  ieee802154Narrow.anchor[14].appl  "Number of AN Reports with ACK"  TV
vector 340  ieee802154Narrow.anchor[14].appl  "Number of packets sent from mobile node 0"  TV
vector 341  ieee802154Narrow.anchor[14].appl  "Effectiveness in each anchor"  TV
vector 342  ieee802154Narrow.anchor[15].appl  "Dropped Packets in AN - No ACK received"  TV
vector 343  ieee802154Narrow.anchor[15].appl  "Dropped Packets in AN - Max MAC BackOff tries"  TV
vector 344  ieee802154Narrow.anchor[15].appl  "Number of AN Reports with ACK"  TV
vector 346  ieee802154Narrow.anchor[15].appl  "Number of packets sent from mobile node 0"  TV
vector 347  ieee802154Narrow.anchor[15].appl  "Effectiveness in each anchor"  TV
vector 348  ieee802154Narrow.anchor[16].appl  "Dropped Packets in AN - No ACK received"  TV
vector 349  ieee802154Narrow.anchor[16].appl  "Dropped Packets in AN - Max MAC BackOff tries"  TV
vector 350  ieee802154Narrow.anchor[16].appl  "Number of AN Reports with ACK"  TV
vector 352  ieee802154Narrow.anchor[16].appl  "Number of packets sent from mobile node 0"  TV
vector 353  ieee802154Narrow.anchor[16].appl  "Effectiveness in each anchor"  TV
vector 354  ieee802154Narrow.anchor[17].appl  "Dropped Packets in AN - No ACK received"  TV
vector 355  ieee802154Narrow.anchor[17].appl  "Dropped Packets in AN - Max MAC BackOff tries"  TV
vector 356  ieee802154Narrow.anchor[17].appl  "Number of AN Reports with ACK"  TV
vector 358  ieee802154Narrow.anchor[17].appl  "Number of packets sent from mobile node 0"  TV
vector 359  ieee802154Narrow.anchor[17].appl  "Effectiveness in each anchor"  TV
vector 360  ieee802154Narrow.anchor[18].appl  "Dropped Packets in AN - No ACK received"  TV
vector 361  ieee802154Narrow.anchor[18].appl  "Dropped Packets in AN - Max MAC BackOff tries"  TV
vector 362  ieee802154Narrow.anchor[18].appl  "Number of AN Reports with ACK"  TV
vector 364  ieee802154Narrow.anchor[18].appl  "Number of packets sent from mobile node 0"  TV
vector 365  ieee802154Narrow.anchor[18].appl  "Effectiveness in each anchor"  TV
vector 366  ieee802154Narrow.anchor[19].appl  "Dropped Packets in AN - No ACK received"  TV
vector 367  ieee802154Narrow.anchor[19].appl  "Dropped Packets in AN - Max MAC BackOff tries"  TV
vector 368  ieee802154Narrow.anchor[19].appl  "Number of AN Reports with ACK"  TV
vector 370  ieee802154Narrow.anchor[19].appl  "Number of packets sent from mobile node 0"  TV
vector 371  ieee802154Narrow.anchor[19].appl  "Effectiveness in each anchor"  TV
vector 372  ieee802154Narrow.anchor[20].appl  "Dropped Packets in AN - No ACK received"  TV
vector 373  ieee802154Narrow.anchor[20].appl  "Dropped Packets in AN - Max MAC BackOff tries"  TV
vector 374  ieee802154Narrow.anchor[20].appl  "Number of AN Reports with ACK"  TV
vector 376  ieee802154Narrow.anchor[20].appl  "Number of packets sent from mobile node 0"  TV
vector 377  ieee802154Narrow.anchor[20].appl  "Effectiveness in each anchor"  TV
vector 378  ieee802154Narrow.anchor[21].appl  "Dropped Packets in AN - No ACK received"  TV
vector 379  ieee802154Narrow.anchor[21].appl  "Dropped Packets in AN - Max MAC BackOff tries"  TV
vector 380  ieee802154Narrow.anchor[21].appl  "Number of AN Reports with ACK"  TV
vector 382  ieee802154Narrow.anchor[21].appl  "Number of packets sent from mobile node 0"  TV
vector 383  ieee802154Narrow.anchor[21].appl  "Effectiveness in each anchor"  TV
vector 384  ieee802154Narrow.anchor[22].appl  "Dropped Packets in AN - No ACK received"  TV
vector 385  ieee802154Narrow.anchor[22].appl  "Dropped Packets in AN - Max MAC BackOff tries"  TV
vector 386  ieee802154Narrow.anchor[22].appl  "Number of AN Reports with ACK"  TV
vector 388  ieee802154Narrow.anchor[22].appl  "Number of packets sent from mobile node 0"  TV
vector 389  ieee802154Narrow.anchor[22].appl  "Effectiveness in each anchor"  TV
vector 390  ieee802154Narrow.anchor[23].appl  "Dropped Packets in AN - No ACK received"  TV
vector 391  ieee802154Narrow.anchor[23].appl  "Dropped Packets in AN - Max MAC BackOff tries"  TV
vector 392  ieee802154Narrow.anchor[23].appl  "Number of AN Reports with ACK"  TV
vector 394  ieee802154Narrow.anchor[23].appl  "Number of packets sent from mobile node 0"  TV
vector 395  ieee802154Narrow.anchor[23].appl  "Effectiveness in each anchor"  TV
vector 396  ieee802154Narrow.anchor[24].appl  "Dropped Packets in AN - No ACK received"  TV
vector 397  ieee802154Narrow.anchor[24].appl  "Dropped Packets in AN - Max MAC BackOff tries"  TV
vector 398  ieee802154Narrow.anchor[24].appl  "Number of AN Reports with ACK"  TV
vector 400  ieee802154Narrow.anchor[24].appl  "Number of packets sent from mobile node 0"  TV
vector 401  ieee802154Narrow.anchor[24].appl  "Effectiveness in each anchor"  TV
vector 402  ieee802154Narrow.computer[0].appl  received-packets-per-period  TV
vector 403  ieee802154Narrow.computer[0].appl  received-no-repeated-packets-per-period  TV
vector 405  ieee802154Narrow.computer[0].appl  "Number of packets sent from anchor 8"  TV
vector 406  ieee802154Narrow.computer[0].appl  "Number of packets sent from anchor 12"  TV
vector 407  ieee802154Narrow.computer[0].appl  "Number of packets sent from anchor 16"  TV
vector 408  ieee802154Narrow.computer[0].appl  "Number of packets sent from anchor 20"  TV
vector 404  ieee802154Narrow.computer[0].appl  "Number of packets sent from mobile node 0"  TV
vector 409  ieee802154Narrow.anchor[1].appl  ""  TV
vector 410  ieee802154Narrow.anchor[1].appl  ""  TV
vector 411  ieee802154Narrow.anchor[2].appl  ""  TV
vector 412  ieee802154Narrow.anchor[2].appl  ""  TV
vector 413  ieee802154Narrow.anchor[3].appl  ""  TV
vector 414  ieee802154Narrow.anchor[3].appl  ""  TV
vector 415  ieee802154Narrow.anchor[5].appl  ""  TV
vector 416  ieee802154Narrow.anchor[5].appl  ""  TV
vector 417  ieee802154Narrow.anchor[6].appl  ""  TV
vector 418  ieee802154Narrow.anchor[6].appl  ""  TV
vector 419  ieee802154Narrow.anchor[7].appl  ""  TV
vector 420  ieee802154Narrow.anchor[7].appl  ""  TV
vector 421  ieee802154Narrow.anchor[8].appl  ""  TV
vector 422  ieee802154Narrow.anchor[8].appl  ""  TV
vector 423  ieee802154Narrow.anchor[9].appl  ""  TV
vector 424  ieee802154Narrow.anchor[9].appl  ""  TV
vector 425  ieee802154Narrow.anchor[10].appl  ""  TV
vector 426  ieee802154Narrow.anchor[10].appl  ""  TV
vector 427  ieee802154Narrow.anchor[11].appl  ""  TV
vector 428  ieee802154Narrow.anchor[11].appl  ""  TV
vector 429  ieee802154Narrow.anchor[12].appl  ""  TV
vector 430  ieee802154Narrow.anchor[12].appl  ""  TV
vector 431  ieee802154Narrow.anchor[13].appl  ""  TV
vector 432  ieee802154Narrow.anchor[13].appl  ""  TV
vector 433  ieee802154Narrow.anchor[14].appl  ""  TV
vector 434  ieee802154Narrow.anchor[14].appl  ""  TV
vector 435  ieee802154Narrow.anchor[15].appl  ""  TV
vector 436  ieee802154Narrow.anchor[15].appl  ""  TV
vector 437  ieee802154Narrow.anchor[16].appl  ""  TV
vector 438  ieee802154Narrow.anchor[16].appl  ""  TV
vector 439  ieee802154Narrow.anchor[17].appl  ""  TV
vector 440  ieee802154Narrow.anchor[17].appl  ""  TV
vector 441  ieee802154Narrow.anchor[18].appl  ""  TV
vector 442  ieee802154Narrow.anchor[18].appl  ""  TV
vector 443  ieee802154Narrow.anchor[19].appl  ""  TV
vector 444  ieee802154Narrow.anchor[19].appl  ""  TV
vector 445  ieee802154Narrow.anchor[20].appl  ""  TV
vector 446  ieee802154Narrow.anchor[20].appl  ""  TV
vector 447  ieee802154Narrow.anchor[21].appl  ""  TV
vector 448  ieee802154Narrow.anchor[21].appl  ""  TV
vector 449  ieee802154Narrow.anchor[22].appl  ""  TV
vector 450  ieee802154Narrow.anchor[22].appl  ""  TV
vector 451  ieee802154Narrow.anchor[23].appl  ""  TV
vector 452  ieee802154Narrow.anchor[23].appl  ""  TV
vector 453  ieee802154Narrow.anchor[24].appl  ""  TV
vector 454  ieee802154Narrow.anchor[24].appl  ""  TV
252	1.86	0
252	4.28	0
252	6.7	0
252	9.12	0
252	11.54	0
252	13.96	0
252	16.38	0
252	18.8	0
252	21.22	0
252	23.64	0
252	26.06	0
252	28.48	0
252	30.9	0
252	33.32	0
252	35.74	0
252	38.16	0
252	40.58	0
252	43	0
252	45.42	0
252	47.84	0
252	50.26	0
252	52.68	0
252	55.1	0
252	57.52	0
252	59.94	0
252	62.36	0
252	64.78	0
252	67.2	0
252	69.62	0
252	72.04	0
252	74.46	0
252	76.88	0
252	79.3	0
252	81.72	0
252	84.14	0
252	86.56	0
252	88.98	0
252	91.4	0
252	93.82	0
252	96.24	0
252	98.66	0
252	101.08	0
252	103.5	0
252	105.92	0
252	108.34	0
252	110.76	0
252	113.18	0
252	115.6	0
252	118.02	0
252	120.44	0
252	122.86	0
252	125.28	0
252	127.7	0
252	130.12	0
252	132.54	0
252	134.96	0
252	137.38	0
252	139.8	0
252	142.22	0
252	144.64	0
252	147.06	0
252	149.48	0
252	151.9	0
252	154.32	0
252	156.74	0
252	159.16	0
252	161.58	0
252	164	0
252	166.42	0
252	168.84	0
252	171.26	0
252	173.68	0
252	176.1	0
252	178.52	0
252	180.94	0
252	183.36	0
252	185.78	0
252	188.2	0
252	190.62	0
252	193.04	0
253	1.86	0
253	4.28	0
253	6.7	0
253	9.12	0
253	11.54	0
253	13.96	0
253	16.38	0
253	18.8	0
253	21.22	0
253	23.64	0
253	26.06	0
253	28.48	0
253	30.9	0
253	33.32	0
253	35.74	0
253	38.16	0
253	40.58	0
253	43	0
253	45.42	0
253	47.84	0
253	50.26	0
253	52.68	0
253	55.1	0
253	57.52	0
253	59.94	0
253	62.36	0
253	64.78	0
253	67.2	0
253	69.62	0
253	72.04	0
253	74.46	0
253	76.88	0
253	79.3	0
253	81.72	0
253	84.14	0
253	86.56	0
253	88.98	0
253	91.4	0
253	93.82	0
253	96.24	0
253	98.66	0
253	101.08	0
253	103.5	0
253	105.92	0
253	108.34	0
253	110.76	0
253	113.18	0
253	115.6	0
253	118.02	0
253	120.44	0
253	122.86	0
253	125.28	0
253	127.7	0
253	130.12	0
253	132.54	0
253	134.96	0
253	137.38	0
253	139.8	0
253	142.22	0
253	144.64	0
253	147.06	0
253	149.48	0
253	151.9	0
253	154.32	0
253	156.74	0
253	159.16	0
253	161.58	0
253	164	0
253	166.42	0
253	168.84	0
253	171.26	0
253	173.68	0
253	176.1	0
253	178.52	0
253	180.94	0
253	183.36	0
253	185.78	0
253	188.2	0
253	190.62	0
253	193.04	0
254	1.86	0
254	4.28	0
254	6.7	0
254	9.12	0
254	11.54	0
254	13.96	0
254	16.38	0
254	18.8	0
254	21.22	0
254	23.64	0
254	26.06	0
254	28.48	0
254	30.9	0
254	33.32	0
254	35.74	0
254	38.16	0
254	40.58	0
254	43	0
254	45.42	0
254	47.84	0
254	50.26	0
254	52.68	0
254	55.1	0
254	57.52	0
254	59.94	0
254	62.36	0
254	64.78	0
254	67.2	0
254	69.62	0
254	72.04	0
254	74.46	0
254	76.88	0
254	79.3	0
254	81.72	0
254	84.14	0
254	86.56	0
254	88.98	0
254	91.4	0
254	93.82	0
254	96.24	0
254	98.66	0
254	101.08	0
254	103.5	0
254	105.92	0
254	108.34	0
254	110.76	0
254	113.18	0
254	115.6	0
254	118.02	0
254	120.44	0
254	122.86	0
254	125.28	0
254	127.7	0
254	130.12	0
254	132.54	0
254	134.96	0
254	137.38	0
254	139.8	0
254	142.22	0
254	144.64	0
254	147.06	0
254	149.48	0
254	151.9	0
254	154.32	0
254	156.74	0
254	159.16	0
254	161.58	0
254	164	0
254	166.42	0
254	168.84	0
254	171.26	0
254	173.68	0
254	176.1	0
254	178.52	0
254	180.94	0
254	183.36	0
254	185.78	0
254	188.2	0
254	190.62	0
254	193.04	0
255	0.82	0
255	3.24	0
255	5.66	0
255	8.08	0
255	10.5	0
255	12.92	0
255	15.34	0
255	17.76	0
255	20.18	0
255	22.6	0
255	25.02	0
255	27.44	0
255	29.86	0
255	32.28	0
255	34.7	0
255	37.12	0
255	39.54	0
255	41.96	0
255	44.38	0
255	46.8	0
255	49.22	0
255	51.64	0
255	54.06	0
255	56.48	0
255	58.9	0
255	61.32	0
255	63.74	0
255	66.16	0
255	68.58	0
255	71	0
255	73.42	0
255	75.84	0
255	78.26	0
255	80.68	0
255	83.1	0
255	85.52	0
255	87.94	0
255	90.36	0
255	92.78	0
255	95.2	0
255	97.62	0
255	100.04	0
255	102.46	0
255	104.88	0
255	107.3	0
255	109.72	0
255	112.14	0
255	114.56	0
255	116.98	0
255	119.4	0
255	121.82	0
255	124.24	0
255	126.66	0
255	129.08	0
255	131.5	0
255	133.92	0
255	136.34	0
255	138.76	0
255	141.18	0
255	143.6	0
255	146.02	0
255	148.44	0
255	150.86	0
255	153.28	0
255	155.7	0
255	158.12	0
255	160.54	0
255	162.96	0
255	165.38	0
255	167.8	0
255	170.22	0
255	172.64	0
255	175.06	0
255	177.48	0
255	179.9	0
255	182.32	0
255	184.74	0
255	187.16	0
255	189.58	0
255	192	0
256	1.86	0
256	4.28	0
256	6.7	0
256	9.12	0
256	11.54	0
256	13.96	0
256	16.38	0
256	18.8	0
256	21.22	0
256	23.64	0
256	26.06	0
256	28.48	0
256	30.9	0
256	33.32	0
256	35.74	0
256	38.16	0
256	40.58	0
256	43	0
256	45.42	0
256	47.84	0
256	50.26	0
256	52.68	0
256	55.1	0
256	57.52	0
256	59.94	0
256	62.36	0
256	64.78	0
256	67.2	0
256	69.62	0
256	72.04	0
256	74.46	0
256	76.88	0
256	79.3	0
256	81.72	0
256	84.14	0
256	86.56	0
256	88.98	0
256	91.4	0
256	93.82	0
256	96.24	0
256	98.66	0
256	101.08	0
256	103.5	0
256	105.92	0
256	108.34	0
256	110.76	0
256	113.18	0
256	115.6	0
256	118.02	0
256	120.44	0
256	122.86	0
256	125.28	0
256	127.7	0
256	130.12	0
256	132.54	0
256	134.96	0
256	137.38	0
256	139.8	0
256	142.22	0
256	144.64	0
256	147.06	0
256	149.48	0
256	151.9	0
256	154.32	0
256	156.74	0
256	159.16	0
256	161.58	0
256	164	0
256	166.42	0
256	168.84	0
256	171.26	0
256	173.68	0
256	176.1	0
256	178.52	0
256	180.94	0
256	183.36	0
256	185.78	0
256	188.2	0
256	190.62	0
256	193.04	0
257	1.86	1
257	4.28	1
257	6.7	1
257	9.12	1
257	11.54	0.96875
257	13.96	0.96875
257	16.38	0.96875
257	18.8	0.96875
257	21.22	1
257	23.64	1
257	26.06	1
257	28.48	1
257	30.9	1
257	33.32	1
257	35.74	1
257	38.16	1
257	40.58	1
257	43	1
257	45.42	1
257	47.84	1
257	50.26	1
257	52.68	1
257	55.1	1
257	57.52	1
257	59.94	1
257	62.36	1
257	64.78	1
257	67.2	1
257	69.62	1
257	72.04	1
257	74.46	1
257	76.88	1
257	79.3	1
257	81.72	1
257	84.14	1
257	86.56	1
257	88.98	1
257	91.4	1
257	93.82	1
257	96.24	1
257	98.66	1
257	101.08	1
257	103.5	1
257	105.92	1
257	108.34	1
257	110.76	1
257	113.18	1
257	115.6	1
257	118.02	1
257	120.44	1
257	122.86	1
257	125.28	1
257	127.7	1
257	130.12	1
257	132.54	1
257	134.96	1
257	137.38	1
257	139.8	1
257	142.22	1
257	144.64	1
257	147.06	1
257	149.48	1
257	151.9	1
257	154.32	1
257	156.74	1
257	159.16	1
257	161.58	1
257	164	1
257	166.42	1
257	168.84	1
257	171.26	1
257	173.68	1
257	176.1	1
257	178.52	1
257	180.94	1
257	183.36	1
257	185.78	1
257	188.2	1
257	190.62	1
257	193.04	1
258	1.86	0
258	4.28	0
258	6.7	0
258	9.12	0
258	11.54	0
258	13.96	0
258	16.38	0
258	18.8	0
258	21.22	0
258	23.64	0
258	26.06	0
258	28.48	0
258	30.9	0
258	33.32	0
258	35.74	0
258	38.16	0
258	40.58	0
258	43	0
258	45.42	0
258	47.84	0
258	50.26	0
258	52.68	0
258	55.1	0
258	57.52	0
258	59.94	0
258	62.36	0
258	64.78	0
258	67.2	0
258	69.62	0
258	72.04	0
258	74.46	0
258	76.88	0
258	79.3	0
258	81.72	0
258	84.14	0
258	86.56	0
258	88.98	0
258	91.4	0
258	93.82	0
258	96.24	0
258	98.66	0
258	101.08	0
258	103.5	0
258	105.92	0
258	108.34	0
258	110.76	0
258	113.18	0
258	115.6	0
258	118.02	0
258	120.44	0
258	122.86	0
258	125.28	0
258	127.7	0
258	130.12	0
258	132.54	0
258	134.96	0
258	137.38	0
258	139.8	0
258	142.22	0
258	144.64	0
258	147.06	0
258	149.48	0
258	151.9	0
258	154.32	0
258	156.74	0
258	159.16	0
258	161.58	0
258	164	0
258	166.42	0
258	168.84	0
258	171.26	0
258	173.68	0
258	176.1	0
258	178.52	0
258	180.94	0
258	183.36	0
258	185.78	0
258	188.2	0
258	190.62	0
258	193.04	0
259	1.86	0
259	4.28	0
259	6.7	0
259	9.12	0
259	11.54	0
259	13.96	0
259	16.38	0
259	18.8	0
259	21.22	0
259	23.64	0
259	26.06	0
259	28.48	0
259	30.9	0
259	33.32	0
259	35.74	0
259	38.16	0
259	40.58	0
259	43	0
259	45.42	0
259	47.84	0
259	50.26	0
259	52.68	0
259	55.1	0
259	57.52	0
259	59.94	0
259	62.36	0
259	64.78	0
259	67.2	0
259	69.62	0
259	72.04	0
259	74.46	0
259	76.88	0
259	79.3	0
259	81.72	0
259	84.14	0
259	86.56	0
259	88.98	0
259	91.4	0
259	93.82	0
259	96.24	0
259	98.66	0
259	101.08	0
259	103.5	0
259	105.92	0
259	108.34	0
259	110.76	0
259	113.18	0
259	115.6	0
259	118.02	0
259	120.44	0
259	122.86	0
259	125.28	0
259	127.7	0
259	130.12	0
259	132.54	0
259	134.96	0
259	137.38	0
259	139.8	0
259	142.22	0
259	144.64	0
259	147.06	0
259	149.48	0
259	151.9	0
259	154.32	0
259	156.74	0
259	159.16	0
259	161.58	0
259	164	0
259	166.42	0
259	168.84	0
259	171.26	0
259	173.68	0
259	176.1	0
259	178.52	0
259	180.94	0
259	183.36	0
259	185.78	0
259	188.2	0
259	190.62	0
259	193.04	0
260	1.86	1
260	4.28	1
260	6.7	1
260	9.12	1
260	11.54	1
260	13.96	1
260	16.38	1
260	18.8	1
260	21.22	1
260	23.64	1
260	26.06	1
260	28.48	1
260	30.9	1
260	33.32	1
260	35.74	1
260	38.16	1
260	40.58	1
260	43	1
260	45.42	1
260	47.84	1
260	50.26	1
260	52.68	1
260	55.1	1
260	57.52	1
260	59.94	1
260	62.36	1
260	64.78	1
260	67.2	1
260	69.62	1
260	72.04	1
260	74.46	1
260	76.88	1
260	79.3	1
260	81.72	1
260	84.14	1
260	86.56	1
260	88.98	1
260	91.4	1
260	93.82	1
260	96.24	1
260	98.66	1
260	101.08	1
260	103.5	1
260	105.92	1
260	108.34	1
260	110.76	1
260	113.18	1
260	115.6	1
260	118.02	1
260	120.44	1
260	122.86	1
260	125.28	1
260	127.7	1
260	130.12	1
260	132.54	1
260	134.96	1
260	137.38	1
260	139.8	1
260	142.22	1
260	144.64	1
260	147.06	1
260	149.48	1
260	151.9	1
260	154.32	1
260	156.74	1
260	159.16	1
260	161.58	1
260	164	1
260	166.42	1
260	168.84	1
260	171.26	1
260	173.68	1
260	176.1	1
260	178.52	1
260	180.94	1
260	183.36	1
260	185.78	1
260	188.2	1
260	190.62	1
260	193.04	1
261	0.82	1
261	3.24	1
261	5.66	1
261	8.08	1
261	10.5	1
261	12.92	1
261	15.34	1
261	17.76	1
261	20.18	1
261	22.6	1
261	25.02	1
261	27.44	1
261	29.86	1
261	32.28	1
261	34.7	1
261	37.12	1
261	39.54	1
261	41.96	1
261	44.38	1
261	46.8	1
261	49.22	1
261	51.64	1
261	54.06	1
261	56.48	1
261	58.9	1
261	61.32	1
261	63.74	1
261	66.16	1
261	68.58	1
261	71	1
261	73.42	1
261	75.84	1
261	78.26	1
261	80.68	1
261	83.1	1
261	85.52	1
261	87.94	1
261	90.36	1
261	92.78	1
261	95.2	1
261	97.62	1
261	100.04	1
261	102.46	1
261	104.88	1
261	107.3	1
261	109.72	1
261	112.14	1
261	114.56	1
261	116.98	1
261	119.4	1
261	121.82	1
261	124.24	1
261	126.66	1
261	129.08	1
261	131.5	1
261	133.92	1
261	136.34	1
261	138.76	1
261	141.18	1
261	143.6	1
261	146.02	1
261	148.44	1
261	150.86	1
261	153.28	1
261	155.7	1
261	158.12	1
261	160.54	1
261	162.96	1
261	165.38	1
261	167.8	1
261	170.22	1
261	172.64	1
261	175.06	1
261	177.48	1
261	179.9	1
261	182.32	1
261	184.74	1
261	187.16	1
261	189.58	1
261	192	1
262	1.86	1
262	4.28	1
262	6.7	1
262	9.12	1
262	11.54	1
262	13.96	1
262	16.38	1
262	18.8	1
262	21.22	1
262	23.64	1
262	26.06	1
262	28.48	1
262	30.9	1
262	33.32	1
262	35.74	1
262	38.16	1
262	40.58	1
262	43	1
262	45.42	1
262	47.84	1
262	50.26	1
262	52.68	1
262	55.1	1
262	57.52	1
262	59.94	1
262	62.36	1
262	64.78	1
262	67.2	1
262	69.62	1
262	72.04	1
262	74.46	1
262	76.88	1
262	79.3	1
262	81.72	1
262	84.14	1
262	86.56	1
262	88.98	1
262	91.4	1
262	93.82	1
262	96.24	1
262	98.66	1
262	101.08	1
262	103.5	1
262	105.92	1
262	108.34	1
262	110.76	1
262	113.18	1
262	115.6	1
262	118.02	1
262	120.44	1
262	122.86	1
262	125.28	1
262	127.7	1
262	130.12	1
262	132.54	1
262	134.96	1
262	137.38	1
262	139.8	1
262	142.22	1
262	144.64	1
262	147.06	1
262	149.48	1
262	151.9	1
262	154.32	1
262	156.74	1
262	159.16	1
262	161.58	1
262	164	1
262	166.42	1
262	168.84	1
262	171.26	1
262	173.68	1
262	176.1	1
262	178.52	1
262	180.94	1
262	183.36	1
262	185.78	1
262	188.2	1
262	190.62	1
262	193.04	1
263	1.86	1
263	4.28	1
263	6.7	1
263	9.12	0.96875
263	11.54	0.96875
263	13.96	0.96875
263	16.38	0.96875
263	18.8	1
263	21.22	1
263	23.64	1
263	26.06	1
263	28.48	1
263	30.9	1
263	33.32	1
263	35.74	1
263	38.16	1
263	40.58	1
263	43	1
263	45.42	1
263	47.84	1
263	50.26	1
263	52.68	1
263	55.1	1
263	57.52	1
263	59.94	1
263	62.36	1
263	64.78	1
263	67.2	1
263	69.62	1
263	72.04	1
263	74.46	1
263	76.88	1
263	79.3	1
263	81.72	1
263	84.14	1
263	86.56	1
263	88.98	1
263	91.4	1
263	93.82	1
263	96.24	1
263	98.66	1
263	101.08	1
263	103.5	1
263	105.92	1
263	108.34	1
263	110.76	1
263	113.18	1
263	115.6	1
263	118.02	1
263	120.44	1
263	122.86	1
263	125.28	1
263	127.7	1
263	130.12	1
263	132.54	1
263	134.96	1
263	137.38	1
263	139.8	1
263	142.22	1
263	144.64	1
263	147.06	1
263	149.48	1
263	151.9	1
263	154.32	1
263	156.74	1
263	159.16	1
263	161.58	1
263	164	1
263	166.42	1
263	168.84	1
263	171.26	1
263	173.68	1
263	176.1	1
263	178.52	1
263	180.94	1
263	183.36	1
263	185.78	1
263	188.2	1
263	190.62	1
263	193.04	1
264	1.86	0
264	4.28	0
264	6.7	0
264	9.12	0
264	11.54	0
264	13.96	0
264	16.38	0
264	18.8	0
264	21.22	0
264	23.64	0
264	26.06	0
264	28.48	0
264	30.9	0
264	33.32	0
264	35.74	0
264	38.16	0
264	40.58	0
264	43	0
264	45.42	0
264	47.84	0
264	50.26	0
264	52.68	0
264	55.1	0
264	57.52	0
264	59.94	0
264	62.36	0
264	64.78	0
264	67.2	0
264	69.62	0
264	72.04	0
264	74.46	0
264	76.88	0
264	79.3	0
264	81.72	0
264	84.14	0
264	86.56	0
264	88.98	0
264	91.4	0
264	93.82	0
264	96.24	0
264	98.66	0
264	101.08	0
264	103.5	0
264	105.92	0
264	108.34	0
264	110.76	0
264	113.18	0
264	115.6	0
264	118.02	0
264	120.44	0
264	122.86	0
264	125.28	0
264	127.7	0
264	130.12	0
264	132.54	0
264	134.96	0
264	137.38	0
264	139.8	0
264	142.22	0
264	144.64	0
264	147.06	0
264	149.48	0
264	151.9	0
264	154.32	0
264	156.74	0
264	159.16	0
264	161.58	0
264	164	0
264	166.42	0
264	168.84	0
264	171.26	0
264	173.68	0
264	176.1	0
264	178.52	0
264	180.94	0
264	183.36	0
264	185.78	0
264	188.2	0
264	190.62	0
264	193.04	0
265	1.86	1
265	4.28	0
265	6.7	0
265	9.12	0
265	11.54	0
265	13.96	0
265	16.38	0
265	18.8	0
265	21.22	0
265	23.64	0
265	26.06	0
265	28.48	0
265	30.9	0
265	33.32	0
265	35.74	0
265	38.16	0
265	40.58	0
265	43	0
265	45.42	0
265	47.84	0
265	50.26	0
265	52.68	0
265	55.1	0
265	57.52	0
265	59.94	0
265	62.36	0
265	64.78	0
265	67.2	0
265	69.62	0
265	72.04	0
265	74.46	0
265	76.88	0
265	79.3	0
265	81.72	0
265	84.14	0
265	86.56	0
265	88.98	0
265	91.4	0
265	93.82	0
265	96.24	0
265	98.66	0
265	101.08	0
265	103.5	0
265	105.92	0
265	108.34	0
265	110.76	0