version 2
run BERDistance-0-20120720-11:59:48-5571
attr Channel ghassemzadeh-los
attr Receiver 3dB
attr configname BERDistance
attr datetime 20120720-11:59:48
attr distance 1
attr experiment BERDistance
attr inifile omnetpp.ini
attr iterationvars "$distance=1, $nbPackets=250, $Channel=ghassemzadeh-los, $Receiver=3dB"
attr iterationvars2 "$distance=1, $nbPackets=250, $Channel=ghassemzadeh-los, $Receiver=3dB, $repetition=0"
attr measurement "$distance=1, $nbPackets=250, $Channel=ghassemzadeh-los, $Receiver=3dB"
attr nbPackets 250
attr network ieee802154a
attr processid 5571
attr repetition 0
attr replication #0
attr resultdir results
attr runnumber 0
attr seedset 0

vector 19  ieee802154a.node[0].nic.phy  pathloss  ETV
19	7	5.000544883177	3.1822334876376e-05
19	17	6.880508937379	2.4337720308446e-05
19	27	7.240436153248	1.1183443848108e-05
19	37	8.521860507226	2.6477729404414e-05
19	47	8.797324029229	1.2975082682589e-05
19	59	10.987970743787	1.5307347211303e-05
19	69	12.665905476778	3.2805095145892e-05
19	79	16.430586270309	1.9821974270453e-05
19	89	18.723835896153	1.3763609118594e-05
19	99	19.914003970659	1.4861123965721e-05
19	109	19.950797029075	3.6166689062841e-05
19	121	20.572777490458	3.6829254629098e-05
19	131	21.919438677959	1.6947060112353e-05
19	141	23.044546851605	1.6943839607906e-05
19	151	23.544975030969	1.9757260514007e-05
19	161	23.586814810794	2.3898992815792e-05
19	171	23.672342503624	3.9808063786249e-05
19	181	26.2612774168	2.1574992170405e-05
19	191	26.701371416479	2.975112520941e-05
19	201	28.421990599284	2.2559003262436e-05
19	213	32.103396508973	1.529957606465e-05
19	223	32.720332080651	2.7389266699265e-05
19	233	32.818150947684	1.4186002859309e-05
19	243	33.949721166453	2.0695333827762e-05
19	253	34.064841809357	1.6748190663817e-05
19	263	34.537249531746	1.5440291352954e-05
19	273	36.133971395744	2.5419780593896e-05
19	283	37.731576842439	1.6361630818263e-05
19	293	37.740797832413	1.6403025140419e-05
19	303	38.947991599168	2.8883012163569e-05
19	315	42.248361938343	4.1902702029405e-05
19	325	42.790226376339	3.4635195468952e-05
19	335	44.28270303207	1.79356138028e-05
19	345	44.586064501477	2.0190605651494e-05
